 # Voronoi polycrystal with 5 grains
 CRYSTAL
 PRIMVEC
    200.00000000        0.00000000        0.00000000
      0.00000000      200.00000000        0.00000000
      0.00000000        0.00000000        3.16520000
 CONVVEC
    200.00000000        0.00000000        0.00000000
      0.00000000      200.00000000        0.00000000
      0.00000000        0.00000000        3.16520000
 PRIMCOORD
     7987 1
74        0.71908502       99.73311947        2.37390000
74        3.22008366       97.79314606        2.37390000
74        0.99959764       97.51263344        0.79130000
74        1.28011026       95.29214742        2.37390000
74        7.66105571       98.35417130        2.37390000
74        5.44056969       98.07365868        0.79130000
74        5.72108231       95.85317266        2.37390000
74        3.50059628       95.57266004        0.79130000
74        3.78110890       93.35217401        2.37390000
74        1.56062287       93.07166139        0.79130000
74        1.84113549       90.85117537        2.37390000
74       12.10202776       98.91519654        2.37390000
74        9.88154174       98.63468392        0.79130000
74       10.16205436       96.41419790        2.37390000
74        7.94156833       96.13368528        0.79130000
74        8.22208095       93.91319925        2.37390000
74        6.00159493       93.63268663        0.79130000
74        6.28210755       91.41220061        2.37390000
74        4.06162152       91.13168799        0.79130000
74        4.34213414       88.91120196        2.37390000
74        2.12164811       88.63068934        0.79130000
74        2.40216073       86.41020332        2.37390000
74        0.18167471       86.12969070        0.79130000
74        0.46218733       83.90920467        2.37390000
74       16.54299982       99.47622178        2.37390000
74       14.32251379       99.19570916        0.79130000
74       14.60302641       96.97522313        2.37390000
74       12.38254038       96.69471052        0.79130000
74       12.66305300       94.47422449        2.37390000
74       10.44256698       94.19371187        0.79130000
74       10.72307960       91.97322584        2.37390000
74        8.50259357       91.69271323        0.79130000
74        8.78310619       89.47222720        2.37390000
74        6.56262016       89.19171458        0.79130000
74        6.84313278       86.97122855        2.37390000
74        4.62264676       86.69071593        0.79130000
74        4.90315938       84.47022991        2.37390000
74        2.68267335       84.18971729        0.79130000
74        2.96318597       81.96923126        2.37390000
74        0.74269995       81.68871864        0.79130000
74        1.02321257       79.46823262        2.37390000
74       18.76348584       99.75673440        0.79130000
74       19.04399846       97.53624837        2.37390000
74       16.82351244       97.25573575        0.79130000
74       17.10402505       95.03524973        2.37390000
74       14.88353903       94.75473711        0.79130000
74       15.16405165       92.53425108        2.37390000
74       12.94356562       92.25373846        0.79130000
74       13.22407824       90.03325244        2.37390000
74       11.00359222       89.75273982        0.79130000
74       11.28410484       87.53225379        2.37390000
74        9.06361881       87.25174117        0.79130000
74        9.34413143       85.03125515        2.37390000
74        7.12364540       84.75074253        0.79130000
74        7.40415802       82.53025650        2.37390000
74        5.18367200       82.24974388        0.79130000
74        5.46418462       80.02925786        2.37390000
74        3.24369859       79.74874524        0.79130000
74        3.52421121       77.52825921        2.37390000
74        1.30372519       77.24774659        0.79130000
74        1.58423780       75.02726057        2.37390000
74       23.48497051       98.09727361        2.37390000
74       21.26448449       97.81676099        0.79130000
74       21.54499711       95.59627497        2.37390000
74       19.32451108       95.31576235        0.79130000
74       19.60502370       93.09527632        2.37390000
74       17.38453767       92.81476370        0.79130000
74       17.66505029       90.59427768        2.37390000
74       15.44456427       90.31376506        0.79130000
74       15.72507689       88.09327903        2.37390000
74       13.50459086       87.81276641        0.79130000
74       13.78510348       85.59228039        2.37390000
74       11.56461746       85.31176777        0.79130000
74       11.84513007       83.09128174        2.37390000
74        9.62464405       82.81076912        0.79130000
74        9.90515667       80.59028310        2.37390000
74        7.68467064       80.30977048        0.79130000
74        7.96518326       78.08928445        2.37390000
74        5.74469724       77.80877183        0.79130000
74        6.02520986       75.58828581        2.37390000
74        3.80472383       75.30777319        0.79130000
74        4.08523645       73.08728716        2.37390000
74        1.86475042       72.80677454        0.79130000
74        2.14526304       70.58628852        2.37390000
74        0.20528964       68.08528987        2.37390000
74       27.92594256       98.65829885        2.37390000
74       25.70545654       98.37778623        0.79130000
74       25.98596916       96.15730021        2.37390000
74       23.76548313       95.87678759        0.79130000
74       24.04599575       93.65630156        2.37390000
74       21.82550973       93.37578894        0.79130000
74       22.10602234       91.15530292        2.37390000
74       19.88553632       90.87479030        0.79130000
74       20.16604894       88.65430427        2.37390000
74       17.94556291       88.37379165        0.79130000
74       18.22607553       86.15330563        2.37390000
74       16.00558951       85.87279301        0.79130000
74       16.28610213       83.65230698        2.37390000
74       14.06561610       83.37179436        0.79130000
74       14.34612872       81.15130834        2.37390000
74       12.12564269       80.87079572        0.79130000
74       12.40615531       78.65030969        2.37390000
74       10.18566929       78.36979707        0.79130000
74       10.46618191       76.14931105        2.37390000
74        8.24569588       75.86879843        0.79130000
74        8.52620850       73.64831240        2.37390000
74        6.30572248       73.36779978        0.79130000
74        6.58623510       71.14731375        2.37390000
74        4.36574907       70.86680114        0.79130000
74        4.64626169       68.64631511        2.37390000
74        2.42577566       68.36580249        0.79130000
74        2.70628828       66.14531646        2.37390000
74        0.48580226       65.86480385        0.79130000
74        0.76631488       63.64431782        2.37390000
74       32.36691461       99.21932409        2.37390000
74       30.14642859       98.93881147        0.79130000
74       30.42694121       96.71832545        2.37390000
74       28.20645518       96.43781283        0.79130000
74       28.48696780       94.21732680        2.37390000
74       26.26648178       93.93681418        0.79130000
74       26.54699440       91.71632816        2.37390000
74       24.32650837       91.43581554        0.79130000
74       24.60702099       89.21532951        2.37390000
74       22.38653496       88.93481689        0.79130000
74       22.66704758       86.71433086        2.37390000
74       20.44656156       86.43381825        0.79130000
74       20.72707418       84.21333222        2.37390000
74       18.50658815       83.93281960        0.79130000
74       18.78710077       81.71233357        2.37390000
74       16.56661475       81.43182096        0.79130000
74       16.84712737       79.21133493        2.37390000
74       14.62664134       78.93082231        0.79130000
74       14.90715396       76.71033628        2.37390000
74       12.68666793       76.42982366        0.79130000
74       12.96718055       74.20933764        2.37390000
74       10.74669453       73.92882502        0.79130000
74       11.02720715       71.70833899        2.37390000
74        8.80672112       71.42782637        0.79130000
74        9.08723374       69.20734035        2.37390000
74        6.86674771       68.92682773        0.79130000
74        7.14726033       66.70634170        2.37390000
74        4.92677431       66.42582908        0.79130000
74        5.20728693       64.20534306        2.37390000
74        2.98680090       63.92483044        0.79130000
74        3.26731352       61.70434441        2.37390000
74        1.04682750       61.42383179        0.79130000
74        1.32734012       59.20334577        2.37390000
74       36.80788667       99.78034933        2.37390000
74       34.58740064       99.49983671        0.79130000
74       34.86791326       97.27935068        2.37390000
74       32.64742723       96.99883807        0.79130000
74       32.92793985       94.77835204        2.37390000
74       30.70745383       94.49783942        0.79130000
74       30.98796645       92.27735339        2.37390000
74       28.76748042       91.99684077        0.79130000
74       29.04799304       89.77635475        2.37390000
74       26.82750702       89.49584213        0.79130000
74       27.10801964       87.27535610        2.37390000
74       24.88753361       86.99484348        0.79130000
74       25.16804623       84.77435746        2.37390000
74       22.94756020       84.49384484        0.79130000
74       23.22807282       82.27335881        2.37390000
74       21.00758680       81.99284619        0.79130000
74       21.28809942       79.77236017        2.37390000
74       19.06761339       79.49184755        0.79130000
74       19.34812601       77.27136152        2.37390000
74       17.12763998       76.99084890        0.79130000
74       17.40815260       74.77036288        2.37390000
74       15.18766658       74.48985026        0.79130000
74       15.46817920       72.26936423        2.37390000
74       13.24769317       71.98885161        0.79130000
74       13.52820579       69.76836559        2.37390000
74       11.30771977       69.48785297        0.79130000
74       11.58823239       67.26736694        2.37390000
74        9.36774636       66.98685432        0.79130000
74        9.64825898       64.76636830        2.37390000
74        7.42777295       64.48585568        0.79130000
74        7.70828557       62.26536965        2.37390000
74        5.48779955       61.98485703        0.79130000
74        5.76831217       59.76437101        2.37390000
74        3.54782614       59.48385839        0.79130000
74        3.82833876       57.26337236        2.37390000
74        1.60785273       56.98285974        0.79130000
74        1.88836535       54.76237372        2.37390000
74       39.30888531       97.84037592        2.37390000
74       37.08839929       97.55986330        0.79130000
74       37.36891191       95.33937728        2.37390000
74       35.14842588       95.05886466        0.79130000
74       35.42893850       92.83837863        2.37390000
74       33.20845247       92.55786601        0.79130000
74       33.48896509       90.33737999        2.37390000
74       31.26847907       90.05686737        0.79130000
74       31.54899169       87.83638134        2.37390000
74       29.32850566       87.55586872        0.79130000
74       29.60901828       85.33538270        2.37390000
74       27.38853225       85.05487008        0.79130000
74       27.66904487       82.83438405        2.37390000
74       25.44855885       82.55387143        0.79130000
74       25.72907147       80.33338541        2.37390000
74       23.50858544       80.05287279        0.79130000
74       23.78909806       77.83238676        2.37390000
74       21.56861204       77.55187414        0.79130000
74       21.84912466       75.33138812        2.37390000
74       19.62863863       75.05087550        0.79130000
74       19.90915125       72.83038947        2.37390000
74       17.68866522       72.54987685        0.79130000
74       17.96917784       70.32939083        2.37390000
74       15.74869182       70.04887821        0.79130000
74       16.02920444       67.82839218        2.37390000
74       13.80871841       67.54787956        0.79130000
74       14.08923103       65.32739354        2.37390000
74       11.86874500       65.04688092        0.79130000
74       12.14925762       62.82639489        2.37390000
74        9.92877160       62.54588227        0.79130000
74       10.20928422       60.32539625        2.37390000
74        7.98879819       60.04488363        0.79130000
74        8.26931081       57.82439760        2.37390000
74        6.04882479       57.54388498        0.79130000
74        6.32933741       55.32339896        2.37390000
74        4.10885138       55.04288634        0.79130000
74        4.38936400       52.82240031        2.37390000
74        2.16887797       52.54188769        0.79130000
74        2.44939059       50.32140167        2.37390000
74        0.22890457       50.04088905        0.79130000
74        0.50941719       47.82040302        2.37390000
74       43.74985736       98.40140116        2.37390000
74       41.52937134       98.12088854        0.79130000
74       41.80988396       95.90040252        2.37390000
74       39.58939793       95.61988990        0.79130000
74       39.86991055       93.39940387        2.37390000
74       37.64942452       93.11889125        0.79130000
74       37.92993714       90.89840523        2.37390000
74       35.70945112       90.61789261        0.79130000
74       35.98996374       88.39740658        2.37390000
74       33.76947771       88.11689396        0.79130000
74       34.04999033       85.89640794        2.37390000
74       31.82950431       85.61589532        0.79130000
74       32.11001693       83.39540929        2.37390000
74       29.88953090       83.11489667        0.79130000
74       30.17004352       80.89441065        2.37390000
74       27.94955749       80.61389803        0.79130000
74       28.23007011       78.39341200        2.37390000
74       26.00958409       78.11289938        0.79130000
74       26.29009671       75.89241336        2.37390000
74       24.06961068       75.61190074        0.79130000
74       24.35012330       73.39141471        2.37390000
74       22.12963727       73.11090209        0.79130000
74       22.41014989       70.89041607        2.37390000
74       20.18966387       70.60990345        0.79130000
74       20.47017649       68.38941742        2.37390000
74       18.24969046       68.10890480        0.79130000
74       18.53020308       65.88841878        2.37390000
74       16.30971706       65.60790616        0.79130000
74       16.59022968       63.38742013        2.37390000
74       14.36974365       63.10690751        0.79130000
74       14.65025627       60.88642148        2.37390000
74       12.42977024       60.60590887        0.79130000
74       12.71028286       58.38542284        2.37390000
74       10.48979684       58.10491022        0.79130000
74       10.77030946       55.88442419        2.37390000
74        8.54982343       55.60391157        0.79130000
74        8.83033605       53.38342555        2.37390000
74        6.60985003       53.10291293        0.79130000
74        6.89036264       50.88242690        2.37390000
74        4.66987662       50.60191428        0.79130000
74        4.95038924       48.38142826        2.37390000
74        2.72990321       48.10091564        0.79130000
74        3.01041583       45.88042961        2.37390000
74        0.78992981       45.59991699        0.79130000
74        1.07044243       43.37943097        2.37390000
74       48.19082941       98.96242640        2.37390000
74       45.97034339       98.68191378        0.79130000
74       46.25085601       96.46142776        2.37390000
74       44.03036998       96.18091514        0.79130000
74       44.31088260       93.96042911        2.37390000
74       42.09039658       93.67991649        0.79130000
74       42.37090920       91.45943047        2.37390000
74       40.15042317       91.17891785        0.79130000
74       40.43093579       88.95843182        2.37390000
74       38.21044976       88.67791920        0.79130000
74       38.49096238       86.45743318        2.37390000
74       36.27047636       86.17692056        0.79130000
74       36.55098898       83.95643453        2.37390000
74       34.33050295       83.67592191        0.79130000
74       34.61101557       81.45543589        2.37390000
74       32.39052955       81.17492327        0.79130000
74       32.67104216       78.95443724        2.37390000
74       30.45055614       78.67392462        0.79130000
74       30.73106876       76.45343859        2.37390000
74       28.51058273       76.17292598        0.79130000
74       28.79109535       73.95243995        2.37390000
74       26.57060933       73.67192733        0.79130000
74       26.85112195       71.45144130        2.37390000
74       24.63063592       71.17092868        0.79130000
74       24.91114854       68.95044266        2.37390000
74       22.69066251       68.66993004        0.79130000
74       22.97117513       66.44944401        2.37390000
74       20.75068911       66.16893139        0.79130000
74       21.03120173       63.94844537        2.37390000
74       18.81071570       63.66793275        0.79130000
74       19.09122832       61.44744672        2.37390000
74       16.87074230       61.16693410        0.79130000
74       17.15125491       58.94644808        2.37390000
74       14.93076889       58.66593546        0.79130000
74       15.21128151       56.44544943        2.37390000
74       12.99079548       56.16493681        0.79130000
74       13.27130810       53.94445079        2.37390000
74       11.05082208       53.66393817        0.79130000
74       11.33133470       51.44345214        2.37390000
74        9.11084867       51.16293952        0.79130000
74        9.39136129       48.94245350        2.37390000
74        7.17087526       48.66194088        0.79130000
74        7.45138788       46.44145485        2.37390000
74        5.23090186       46.16094223        0.79130000
74        5.51141448       43.94045621        2.37390000
74        3.29092845       43.65994359        0.79130000
74        3.57144107       41.43945756        2.37390000
74        1.35095505       41.15894494        0.79130000
74        1.63146766       38.93845892        2.37390000
74       50.41131544       99.24293902        0.79130000
74       50.69182806       97.02245300        2.37390000
74       48.47134203       96.74194038        0.79130000
74       48.75185465       94.52145435        2.37390000
74       46.53136863       94.24094173        0.79130000
74       46.81188125       92.02045570        2.37390000
74       44.59139522       91.73994309        0.79130000
74       44.87190784       89.51945706        2.37390000
74       42.65142182       89.23894444        0.79130000
74       42.93193443       87.01845841        2.37390000
74       40.71144841       86.73794579        0.79130000
74       40.99196103       84.51745977        2.37390000
74       38.77147500       84.23694715        0.79130000
74       39.05198762       82.01646112        2.37390000
74       36.83150160       81.73594850        0.79130000
74       37.11201422       79.51546248        2.37390000
74       34.89152819       79.23494986        0.79130000
74       35.17204081       77.01446383        2.37390000
74       32.95155478       76.73395121        0.79130000
74       33.23206740       74.51346519        2.37390000
74       31.01158138       74.23295257        0.79130000
74       31.29209400       72.01246654        2.37390000
74       29.07160797       71.73195392        0.79130000
74       29.35212059       69.51146790        2.37390000
74       27.13163457       69.23095528        0.79130000
74       27.41214718       67.01046925        2.37390000
74       25.19166116       66.72995663        0.79130000
74       25.47217378       64.50947061        2.37390000
74       23.25168775       64.22895799        0.79130000
74       23.53220037       62.00847196        2.37390000
74       21.31171435       61.72795934        0.79130000
74       21.59222697       59.50747332        2.37390000
74       19.37174094       59.22696070        0.79130000
74       19.65225356       57.00647467        2.37390000
74       17.43176753       56.72596205        0.79130000
74       17.71228015       54.50547603        2.37390000
74       15.49179413       54.22496341        0.79130000
74       15.77230675       52.00447738        2.37390000
74       13.55182072       51.72396476        0.79130000
74       13.83233334       49.50347874        2.37390000
74       11.61184732       49.22296612        0.79130000
74       11.89235993       47.00248009        2.37390000
74        9.67187391       46.72196747        0.79130000
74        9.95238653       44.50148145        2.37390000
74        7.73190050       44.22096883        0.79130000
74        8.01241312       42.00048280        2.37390000
74        5.79192710       41.71997018        0.79130000
74        6.07243972       39.49948416        2.37390000
74        3.85195369       39.21897154        0.79130000
74        4.13246631       36.99848551        2.37390000
74        1.91198028       36.71797289        0.79130000
74        2.19249290       34.49748687        2.37390000
74        0.25251950       31.99648822        2.37390000
74       53.19282670       95.08247959        2.37390000
74       50.97234068       94.80196697        0.79130000
74       51.25285330       92.58148094        2.37390000
74       49.03236727       92.30096832        0.79130000
74       49.31287989       90.08048230        2.37390000
74       47.09239387       89.79996968        0.79130000
74       47.37290649       87.57948365        2.37390000
74       45.15242046       87.29897103        0.79130000
74       45.43293308       85.07848501        2.37390000
74       43.21244705       84.79797239        0.79130000
74       43.49295967       82.57748636        2.37390000
74       41.27247365       82.29697374        0.79130000
74       41.55298627       80.07648772        2.37390000
74       39.33250024       79.79597510        0.79130000
74       39.61301286       77.57548907        2.37390000
74       37.39252684       77.29497645        0.79130000
74       37.67303945       75.07449043        2.37390000
74       35.45255343       74.79397781        0.79130000
74       35.73306605       72.57349178        2.37390000
74       33.51258002       72.29297916        0.79130000
74       33.79309264       70.07249314        2.37390000
74       31.57260662       69.79198052        0.79130000
74       31.85311924       67.57149449        2.37390000
74       29.63263321       67.29098187        0.79130000
74       29.91314583       65.07049585        2.37390000
74       27.69265980       64.78998323        0.79130000
74       27.97317242       62.56949720        2.37390000
74       25.75268640       62.28898458        0.79130000
74       26.03319902       60.06849856        2.37390000
74       23.81271299       59.78798594        0.79130000
74       24.09322561       57.56749991        2.37390000
74       21.87273959       57.28698729        0.79130000
74       22.15325221       55.06650127        2.37390000
74       19.93276618       54.78598865        0.79130000
74       20.21327880       52.56550262        2.37390000
74       17.99279277       52.28499000        0.79130000
74       18.27330539       50.06450398        2.37390000
74       16.05281937       49.78399136        0.79130000
74       16.33333199       47.56350533        2.37390000
74       14.11284596       47.28299271        0.79130000
74       14.39335858       45.06250669        2.37390000
74       12.17287255       44.78199407        0.79130000
74       12.45338517       42.56150804        2.37390000
74       10.23289915       42.28099542        0.79130000
74       10.51341177       40.06050940        2.37390000
74        8.29292574       39.77999678        0.79130000
74        8.57343836       37.55951075        2.37390000
74        6.35295234       37.27899813        0.79130000
74        6.63346496       35.05851210        2.37390000
74        4.41297893       34.77799949        0.79130000
74        4.69349155       32.55751346        2.37390000
74        2.47300552       32.27700084        0.79130000
74        2.75351814       30.05651481        2.37390000
74        0.53303212       29.77600219        0.79130000
74        0.81354474       27.55551617        2.37390000
74       55.69382535       93.14250618        2.37390000
74       53.47333932       92.86199356        0.79130000
74       53.75385194       90.64150754        2.37390000
74       51.53336592       90.36099492        0.79130000
74       51.81387854       88.14050889        2.37390000
74       49.59339251       87.85999627        0.79130000
74       49.87390513       85.63951025        2.37390000
74       47.65341911       85.35899763        0.79130000
74       47.93393172       83.13851160        2.37390000
74       45.71344570       82.85799898        0.79130000
74       45.99395832       80.63751296        2.37390000
74       43.77347229       80.35700034        0.79130000
74       44.05398491       78.13651431        2.37390000
74       41.83349889       77.85600169        0.79130000
74       42.11401151       75.63551567        2.37390000
74       39.89352548       75.35500305        0.79130000
74       40.17403810       73.13451702        2.37390000
74       37.95355207       72.85400440        0.79130000
74       38.23406469       70.63351838        2.37390000
74       36.01357867       70.35300576        0.79130000
74       36.29409129       68.13251973        2.37390000
74       34.07360526       67.85200711        0.79130000
74       34.35411788       65.63152109        2.37390000
74       32.13363186       65.35100847        0.79130000
74       32.41414448       63.13052244        2.37390000
74       30.19365845       62.85000982        0.79130000
74       30.47417107       60.62952380        2.37390000
74       28.25368504       60.34901118        0.79130000
74       28.53419766       58.12852515        2.37390000
74       26.31371164       57.84801253        0.79130000
74       26.59422426       55.62752651        2.37390000
74       24.37373823       55.34701389        0.79130000
74       24.65425085       53.12652786        2.37390000
74       22.43376482       52.84601524        0.79130000
74       22.71427744       50.62552921        2.37390000
74       20.49379142       50.34501660        0.79130000
74       20.77430404       48.12453057        2.37390000
74       18.55381801       47.84401795        0.79130000
74       18.83433063       45.62353192        2.37390000
74       16.61384461       45.34301930        0.79130000
74       16.89435723       43.12253328        2.37390000
74       14.67387120       42.84202066        0.79130000
74       14.95438382       40.62153463        2.37390000
74       12.73389779       40.34102201        0.79130000
74       13.01441041       38.12053599        2.37390000
74       10.79392439       37.84002337        0.79130000
74       11.07443701       35.61953734        2.37390000
74        8.85395098       35.33902472        0.79130000
74        9.13446360       33.11853870        2.37390000
74        6.91397757       32.83802608        0.79130000
74        7.19449019       30.61754005        2.37390000
74        4.97400417       30.33702743        0.79130000
74        5.25451679       28.11654141        2.37390000
74        3.03403076       27.83602879        0.79130000
74        3.31454338       25.61554276        2.37390000
74        1.09405736       25.33503014        0.79130000
74        1.37456998       23.11454412        2.37390000
74       58.19482399       91.20253278        2.37390000
74       55.97433797       90.92202016        0.79130000
74       56.25485059       88.70153413        2.37390000
74       54.03436456       88.42102151        0.79130000
74       54.31487718       86.20053549        2.37390000
74       52.09439116       85.92002287        0.79130000
74       52.37490378       83.69953684        2.37390000
74       50.15441775       83.41902422        0.79130000
74       50.43493037       81.19853820        2.37390000
74       48.21444434       80.91802558        0.79130000
74       48.49495696       78.69753955        2.37390000
74       46.27447094       78.41702693        0.79130000
74       46.55498356       76.19654091        2.37390000
74       44.33449753       75.91602829        0.79130000
74       44.61501015       73.69554226        2.37390000
74       42.39452413       73.41502964        0.79130000
74       42.67503675       71.19454362        2.37390000
74       40.45455072       70.91403100        0.79130000
74       40.73506334       68.69354497        2.37390000
74       38.51457731       68.41303235        0.79130000
74       38.79508993       66.19254632        2.37390000
74       36.57460391       65.91203371        0.79130000
74       36.85511653       63.69154768        2.37390000
74       34.63463050       63.41103506        0.79130000
74       34.91514312       61.19054903        2.37390000
74       32.69465709       60.91003641        0.79130000
74       32.97516971       58.68955039        2.37390000
74       30.75468369       58.40903777        0.79130000
74       31.03519631       56.18855174        2.37390000
74       28.81471028       55.90803912        0.79130000
74       29.09522290       53.68755310        2.37390000
74       26.87473688       53.40704048        0.79130000
74       27.15524950       51.18655445        2.37390000
74       24.93476347       50.90604183        0.79130000
74       25.21527609       48.68555581        2.37390000