 # Voronoi polycrystal with 5 grains
 
        7987  atoms
           1  atom types
 
      0.000000000000     200.000000000000  xlo xhi
      0.000000000000     200.000000000000  ylo yhi
      0.000000000000       3.165200000000  zlo zhi
 
Masses
 
            1   183.84000000            # W
 
Atoms # atomic
 
         1    1        0.719085016198      99.733119469447       2.373900000000
         2    1        3.220083661370      97.793146063225       2.373900000000
         3    1        0.999597635673      97.512633443750       0.791300000000
         4    1        1.280110255147      95.292147418053       2.373900000000
         5    1        7.661055712764      98.354171302174       2.373900000000
         6    1        5.440569687067      98.073658682699       0.791300000000
         7    1        5.721082306541      95.853172657002       2.373900000000
         8    1        3.500596280844      95.572660037528       0.791300000000
         9    1        3.781108900319      93.352174011831       2.373900000000
        10    1        1.560622874622      93.071661392356       0.791300000000
        11    1        1.841135494096      90.851175366659       2.373900000000
        12    1       12.102027764158      98.915196541123       2.373900000000
        13    1        9.881541738461      98.634683921648       0.791300000000
        14    1       10.162054357935      96.414197895951       2.373900000000
        15    1        7.941568332238      96.133685276477       0.791300000000
        16    1        8.222080951713      93.913199250780       2.373900000000
        17    1        6.001594926016      93.632686631305       0.791300000000
        18    1        6.282107545490      91.412200605608       2.373900000000
        19    1        4.061621519793      91.131687986134       0.791300000000
        20    1        4.342134139268      88.911201960437       2.373900000000
        21    1        2.121648113571      88.630689340962       0.791300000000
        22    1        2.402160733046      86.410203315265       2.373900000000
        23    1        0.181674707349      86.129690695791       0.791300000000
        24    1        0.462187326823      83.909204670094       2.373900000000
        25    1       16.542999815551      99.476221780072       2.373900000000
        26    1       14.322513789855      99.195709160597       0.791300000000
        27    1       14.603026409329      96.975223134900       2.373900000000
        28    1       12.382540383632      96.694710515426       0.791300000000
        29    1       12.663053003107      94.474224489729       2.373900000000
        30    1       10.442566977410      94.193711870254       0.791300000000
        31    1       10.723079596884      91.973225844557       2.373900000000
        32    1        8.502593571187      91.692713225083       0.791300000000
        33    1        8.783106190662      89.472227199386       2.373900000000
        34    1        6.562620164965      89.191714579911       0.791300000000
        35    1        6.843132784439      86.971228554214       2.373900000000
        36    1        4.622646758743      86.690715934740       0.791300000000
        37    1        4.903159378217      84.470229909043       2.373900000000
        38    1        2.682673352520      84.189717289568       0.791300000000
        39    1        2.963185971995      81.969231263871       2.373900000000
        40    1        0.742699946298      81.688718644397       0.791300000000
        41    1        1.023212565772      79.468232618700       2.373900000000
        42    1       18.763485841248      99.756734399547       0.791300000000
        43    1       19.043998460723      97.536248373850       2.373900000000
        44    1       16.823512435026      97.255735754375       0.791300000000
        45    1       17.104025054501      95.035249728678       2.373900000000
        46    1       14.883539028804      94.754737109203       0.791300000000
        47    1       15.164051648278      92.534251083507       2.373900000000
        48    1       12.943565622581      92.253738464032       0.791300000000
        49    1       13.224078242056      90.033252438335       2.373900000000
        50    1       11.003592216359      89.752739818860       0.791300000000
        51    1       11.284104835833      87.532253793163       2.373900000000
        52    1        9.063618810136      87.251741173689       0.791300000000
        53    1        9.344131429611      85.031255147992       2.373900000000
        54    1        7.123645403914      84.750742528517       0.791300000000
        55    1        7.404158023389      82.530256502820       2.373900000000
        56    1        5.183671997692      82.249743883346       0.791300000000
        57    1        5.464184617166      80.029257857649       2.373900000000
        58    1        3.243698591469      79.748745238174       0.791300000000
        59    1        3.524211210944      77.528259212477       2.373900000000
        60    1        1.303725185247      77.247746593003       0.791300000000
        61    1        1.584237804721      75.027260567306       2.373900000000
        62    1       23.484970512117      98.097273612799       2.373900000000
        63    1       21.264484486420      97.816760993324       0.791300000000
        64    1       21.544997105895      95.596274967627       2.373900000000
        65    1       19.324511080198      95.315762348153       0.791300000000
        66    1       19.605023699672      93.095276322456       2.373900000000
        67    1       17.384537673975      92.814763702981       0.791300000000
        68    1       17.665050293450      90.594277677284       2.373900000000
        69    1       15.444564267753      90.313765057810       0.791300000000
        70    1       15.725076887227      88.093279032113       2.373900000000
        71    1       13.504590861530      87.812766412638       0.791300000000
        72    1       13.785103481005      85.592280386941       2.373900000000
        73    1       11.564617455308      85.311767767466       0.791300000000
        74    1       11.845130074783      83.091281741770       2.373900000000
        75    1        9.624644049086      82.810769122295       0.791300000000
        76    1        9.905156668560      80.590283096598       2.373900000000
        77    1        7.684670642863      80.309770477123       0.791300000000
        78    1        7.965183262338      78.089284451426       2.373900000000
        79    1        5.744697236641      77.808771831952       0.791300000000
        80    1        6.025209856115      75.588285806255       2.373900000000
        81    1        3.804723830418      75.307773186780       0.791300000000
        82    1        4.085236449893      73.087287161083       2.373900000000
        83    1        1.864750424196      72.806774541609       0.791300000000
        84    1        2.145263043671      70.586288515912       2.373900000000
        85    1        0.205289637448      68.085289870740       2.373900000000
        86    1       27.925942563511      98.658298851748       2.373900000000
        87    1       25.705456537814      98.377786232273       0.791300000000
        88    1       25.985969157288      96.157300206576       2.373900000000
        89    1       23.765483131592      95.876787587102       0.791300000000
        90    1       24.045995751066      93.656301561405       2.373900000000
        91    1       21.825509725369      93.375788941930       0.791300000000
        92    1       22.106022344844      91.155302916233       2.373900000000
        93    1       19.885536319147      90.874790296759       0.791300000000
        94    1       20.166048938621      88.654304271062       2.373900000000
        95    1       17.945562912924      88.373791651587       0.791300000000
        96    1       18.226075532399      86.153305625890       2.373900000000
        97    1       16.005589506702      85.872793006416       0.791300000000
        98    1       16.286102126176      83.652306980719       2.373900000000
        99    1       14.065616100480      83.371794361244       0.791300000000
       100    1       14.346128719954      81.151308335547       2.373900000000
       101    1       12.125642694257      80.870795716073       0.791300000000
       102    1       12.406155313732      78.650309690376       2.373900000000
       103    1       10.185669288035      78.369797070901       0.791300000000
       104    1       10.466181907509      76.149311045204       2.373900000000
       105    1        8.245695881812      75.868798425729       0.791300000000
       106    1        8.526208501287      73.648312400032       2.373900000000
       107    1        6.305722475590      73.367799780558       0.791300000000
       108    1        6.586235095064      71.147313754861       2.373900000000
       109    1        4.365749069368      70.866801135386       0.791300000000
       110    1        4.646261688842      68.646315109689       2.373900000000
       111    1        2.425775663145      68.365802490215       0.791300000000
       112    1        2.706288282620      66.145316464518       2.373900000000
       113    1        0.485802256923      65.864803845043       0.791300000000
       114    1        0.766314876397      63.644317819346       2.373900000000
       115    1       32.366914614905      99.219324090697       2.373900000000
       116    1       30.146428589208      98.938811471222       0.791300000000
       117    1       30.426941208682      96.718325445525       2.373900000000
       118    1       28.206455182985      96.437812826051       0.791300000000
       119    1       28.486967802460      94.217326800354       2.373900000000
       120    1       26.266481776763      93.936814180879       0.791300000000
       121    1       26.546994396238      91.716328155182       2.373900000000
       122    1       24.326508370541      91.435815535708       0.791300000000
       123    1       24.607020990015      89.215329510011       2.373900000000
       124    1       22.386534964318      88.934816890536       0.791300000000
       125    1       22.667047583793      86.714330864839       2.373900000000
       126    1       20.446561558096      86.433818245365       0.791300000000
       127    1       20.727074177570      84.213332219668       2.373900000000
       128    1       18.506588151873      83.932819600193       0.791300000000
       129    1       18.787100771348      81.712333574496       2.373900000000
       130    1       16.566614745651      81.431820955022       0.791300000000
       131    1       16.847127365126      79.211334929325       2.373900000000
       132    1       14.626641339429      78.930822309850       0.791300000000
       133    1       14.907153958903      76.710336284153       2.373900000000
       134    1       12.686667933206      76.429823664679       0.791300000000
       135    1       12.967180552681      74.209337638982       2.373900000000
       136    1       10.746694526984      73.928825019507       0.791300000000
       137    1       11.027207146458      71.708338993810       2.373900000000
       138    1        8.806721120761      71.427826374336       0.791300000000
       139    1        9.087233740236      69.207340348639       2.373900000000
       140    1        6.866747714539      68.926827729164       0.791300000000
       141    1        7.147260334014      66.706341703467       2.373900000000
       142    1        4.926774308317      66.425829083992       0.791300000000
       143    1        5.207286927791      64.205343058295       2.373900000000
       144    1        2.986800902094      63.924830438821       0.791300000000
       145    1        3.267313521569      61.704344413124       2.373900000000
       146    1        1.046827495872      61.423831793649       0.791300000000
       147    1        1.327340115346      59.203345767952       2.373900000000
       148    1       36.807886666299      99.780349329646       2.373900000000
       149    1       34.587400640602      99.499836710172       0.791300000000
       150    1       34.867913260076      97.279350684475       2.373900000000
       151    1       32.647427234379      96.998838065000       0.791300000000
       152    1       32.927939853854      94.778352039303       2.373900000000
       153    1       30.707453828157      94.497839419828       0.791300000000
       154    1       30.987966447632      92.277353394132       2.373900000000
       155    1       28.767480421935      91.996840774657       0.791300000000
       156    1       29.047993041409      89.776354748960       2.373900000000
       157    1       26.827507015712      89.495842129485       0.791300000000
       158    1       27.108019635187      87.275356103788       2.373900000000
       159    1       24.887533609490      86.994843484314       0.791300000000
       160    1       25.168046228964      84.774357458617       2.373900000000
       161    1       22.947560203267      84.493844839142       0.791300000000
       162    1       23.228072822742      82.273358813445       2.373900000000
       163    1       21.007586797045      81.992846193971       0.791300000000
       164    1       21.288099416520      79.772360168274       2.373900000000
       165    1       19.067613390823      79.491847548799       0.791300000000
       166    1       19.348126010297      77.271361523102       2.373900000000
       167    1       17.127639984600      76.990848903628       0.791300000000
       168    1       17.408152604075      74.770362877931       2.373900000000
       169    1       15.187666578378      74.489850258456       0.791300000000
       170    1       15.468179197852      72.269364232759       2.373900000000
       171    1       13.247693172155      71.988851613285       0.791300000000
       172    1       13.528205791630      69.768365587588       2.373900000000
       173    1       11.307719765933      69.487852968113       0.791300000000
       174    1       11.588232385408      67.267366942416       2.373900000000
       175    1        9.367746359711      66.986854322942       0.791300000000
       176    1        9.648258979185      64.766368297245       2.373900000000
       177    1        7.427772953488      64.485855677770       0.791300000000
       178    1        7.708285572963      62.265369652073       2.373900000000
       179    1        5.487799547266      61.984857032599       0.791300000000
       180    1        5.768312166740      59.764371006902       2.373900000000
       181    1        3.547826141043      59.483858387427       0.791300000000
       182    1        3.828338760518      57.263372361730       2.373900000000
       183    1        1.607852734821      56.982859742255       0.791300000000
       184    1        1.888365354296      54.762373716558       2.373900000000
       185    1       39.308885311470      97.840375923424       2.373900000000
       186    1       37.088399285773      97.559863303949       0.791300000000
       187    1       37.368911905248      95.339377278252       2.373900000000
       188    1       35.148425879551      95.058864658778       0.791300000000
       189    1       35.428938499026      92.838378633081       2.373900000000
       190    1       33.208452473329      92.557866013606       0.791300000000
       191    1       33.488965092803      90.337379987909       2.373900000000
       192    1       31.268479067106      90.056867368435       0.791300000000
       193    1       31.548991686581      87.836381342738       2.373900000000
       194    1       29.328505660884      87.555868723263       0.791300000000
       195    1       29.609018280358      85.335382697566       2.373900000000
       196    1       27.388532254661      85.054870078091       0.791300000000
       197    1       27.669044874136      82.834384052395       2.373900000000
       198    1       25.448558848439      82.553871432920       0.791300000000
       199    1       25.729071467913      80.333385407223       2.373900000000
       200    1       23.508585442217      80.052872787748       0.791300000000
       201    1       23.789098061691      77.832386762051       2.373900000000
       202    1       21.568612035994      77.551874142577       0.791300000000
       203    1       21.849124655469      75.331388116880       2.373900000000
       204    1       19.628638629772      75.050875497405       0.791300000000
       205    1       19.909151249246      72.830389471708       2.373900000000
       206    1       17.688665223549      72.549876852234       0.791300000000
       207    1       17.969177843024      70.329390826537       2.373900000000
       208    1       15.748691817327      70.048878207062       0.791300000000
       209    1       16.029204436801      67.828392181365       2.373900000000
       210    1       13.808718411105      67.547879561891       0.791300000000
       211    1       14.089231030579      65.327393536194       2.373900000000
       212    1       11.868745004882      65.046880916719       0.791300000000
       213    1       12.149257624357      62.826394891022       2.373900000000
       214    1        9.928771598660      62.545882271548       0.791300000000
       215    1       10.209284218134      60.325396245851       2.373900000000
       216    1        7.988798192437      60.044883626376       0.791300000000
       217    1        8.269310811912      57.824397600679       2.373900000000
       218    1        6.048824786215      57.543884981205       0.791300000000
       219    1        6.329337405689      55.323398955508       2.373900000000
       220    1        4.108851379993      55.042886336033       0.791300000000
       221    1        4.389363999467      52.822400310336       2.373900000000
       222    1        2.168877973770      52.541887690862       0.791300000000
       223    1        2.449390593245      50.321401665165       2.373900000000
       224    1        0.228904567548      50.040889045690       0.791300000000
       225    1        0.509417187022      47.820403019993       2.373900000000
       226    1       43.749857362864      98.401401162373       2.373900000000
       227    1       41.529371337167      98.120888542898       0.791300000000
       228    1       41.809883956642      95.900402517201       2.373900000000
       229    1       39.589397930945      95.619889897727       0.791300000000
       230    1       39.869910550419      93.399403872030       2.373900000000
       231    1       37.649424524722      93.118891252555       0.791300000000
       232    1       37.929937144197      90.898405226858       2.373900000000
       233    1       35.709451118500      90.617892607384       0.791300000000
       234    1       35.989963737975      88.397406581687       2.373900000000
       235    1       33.769477712278      88.116893962212       0.791300000000
       236    1       34.049990331752      85.896407936515       2.373900000000
       237    1       31.829504306055      85.615895317041       0.791300000000
       238    1       32.110016925530      83.395409291344       2.373900000000
       239    1       29.889530899833      83.114896671869       0.791300000000
       240    1       30.170043519307      80.894410646172       2.373900000000
       241    1       27.949557493610      80.613898026698       0.791300000000
       242    1       28.230070113085      78.393412001001       2.373900000000
       243    1       26.009584087388      78.112899381526       0.791300000000
       244    1       26.290096706863      75.892413355829       2.373900000000
       245    1       24.069610681166      75.611900736354       0.791300000000
       246    1       24.350123300640      73.391414710658       2.373900000000
       247    1       22.129637274943      73.110902091183       0.791300000000
       248    1       22.410149894418      70.890416065486       2.373900000000
       249    1       20.189663868721      70.609903446011       0.791300000000
       250    1       20.470176488195      68.389417420314       2.373900000000
       251    1       18.249690462498      68.108904800840       0.791300000000
       252    1       18.530203081973      65.888418775143       2.373900000000
       253    1       16.309717056276      65.607906155668       0.791300000000
       254    1       16.590229675751      63.387420129971       2.373900000000
       255    1       14.369743650054      63.106907510497       0.791300000000
       256    1       14.650256269528      60.886421484800       2.373900000000
       257    1       12.429770243831      60.605908865325       0.791300000000
       258    1       12.710282863306      58.385422839628       2.373900000000
       259    1       10.489796837609      58.104910220154       0.791300000000
       260    1       10.770309457083      55.884424194457       2.373900000000
       261    1        8.549823431386      55.603911574982       0.791300000000
       262    1        8.830336050861      53.383425549285       2.373900000000
       263    1        6.609850025164      53.102912929811       0.791300000000
       264    1        6.890362644639      50.882426904114       2.373900000000
       265    1        4.669876618942      50.601914284639       0.791300000000
       266    1        4.950389238416      48.381428258942       2.373900000000
       267    1        2.729903212719      48.100915639468       0.791300000000
       268    1        3.010415832194      45.880429613771       2.373900000000
       269    1        0.789929806497      45.599916994296       0.791300000000
       270    1        1.070442425971      43.379430968599       2.373900000000
       271    1       48.190829414258      98.962426401322       2.373900000000
       272    1       45.970343388561      98.681913781847       0.791300000000
       273    1       46.250856008036      96.461427756150       2.373900000000
       274    1       44.030369982339      96.180915136676       0.791300000000
       275    1       44.310882601813      93.960429110979       2.373900000000
       276    1       42.090396576116      93.679916491504       0.791300000000
       277    1       42.370909195591      91.459430465807       2.373900000000
       278    1       40.150423169894      91.178917846333       0.791300000000
       279    1       40.430935789369      88.958431820636       2.373900000000
       280    1       38.210449763672      88.677919201161       0.791300000000
       281    1       38.490962383146      86.457433175464       2.373900000000
       282    1       36.270476357449      86.176920555990       0.791300000000
       283    1       36.550988976924      83.956434530293       2.373900000000
       284    1       34.330502951227      83.675921910818       0.791300000000
       285    1       34.611015570701      81.455435885121       2.373900000000
       286    1       32.390529545004      81.174923265647       0.791300000000
       287    1       32.671042164479      78.954437239950       2.373900000000
       288    1       30.450556138782      78.673924620475       0.791300000000
       289    1       30.731068758257      76.453438594778       2.373900000000
       290    1       28.510582732560      76.172925975304       0.791300000000
       291    1       28.791095352034      73.952439949607       2.373900000000
       292    1       26.570609326337      73.671927330132       0.791300000000
       293    1       26.851121945812      71.451441304435       2.373900000000
       294    1       24.630635920115      71.170928684961       0.791300000000
       295    1       24.911148539589      68.950442659264       2.373900000000
       296    1       22.690662513892      68.669930039789       0.791300000000
       297    1       22.971175133367      66.449444014092       2.373900000000
       298    1       20.750689107670      66.168931394617       0.791300000000
       299    1       21.031201727145      63.948445368920       2.373900000000
       300    1       18.810715701448      63.667932749446       0.791300000000
       301    1       19.091228320922      61.447446723749       2.373900000000
       302    1       16.870742295225      61.166934104274       0.791300000000
       303    1       17.151254914700      58.946448078577       2.373900000000
       304    1       14.930768889003      58.665935459103       0.791300000000
       305    1       15.211281508477      56.445449433406       2.373900000000
       306    1       12.990795482780      56.164936813931       0.791300000000
       307    1       13.271308102255      53.944450788234       2.373900000000
       308    1       11.050822076558      53.663938168760       0.791300000000
       309    1       11.331334696033      51.443452143063       2.373900000000
       310    1        9.110848670336      51.162939523588       0.791300000000
       311    1        9.391361289810      48.942453497891       2.373900000000
       312    1        7.170875264113      48.661940878417       0.791300000000
       313    1        7.451387883588      46.441454852720       2.373900000000
       314    1        5.230901857891      46.160942233245       0.791300000000
       315    1        5.511414477365      43.940456207548       2.373900000000
       316    1        3.290928451668      43.659943588074       0.791300000000
       317    1        3.571441071143      41.439457562377       2.373900000000
       318    1        1.350955045446      41.158944942902       0.791300000000
       319    1        1.631467664921      38.938458917205       2.373900000000
       320    1       50.411315439955      99.242939020797       0.791300000000
       321    1       50.691828059430      97.022452995100       2.373900000000
       322    1       48.471342033733      96.741940375625       0.791300000000
       323    1       48.751854653207      94.521454349928       2.373900000000
       324    1       46.531368627510      94.240941730453       0.791300000000
       325    1       46.811881246985      92.020455704757       2.373900000000
       326    1       44.591395221288      91.739943085282       0.791300000000
       327    1       44.871907840763      89.519457059585       2.373900000000
       328    1       42.651421815066      89.238944440110       0.791300000000
       329    1       42.931934434540      87.018458414413       2.373900000000
       330    1       40.711448408843      86.737945794939       0.791300000000
       331    1       40.991961028318      84.517459769242       2.373900000000
       332    1       38.771475002621      84.236947149767       0.791300000000
       333    1       39.051987622095      82.016461124070       2.373900000000
       334    1       36.831501596398      81.735948504596       0.791300000000
       335    1       37.112014215873      79.515462478899       2.373900000000
       336    1       34.891528190176      79.234949859424       0.791300000000
       337    1       35.172040809650      77.014463833727       2.373900000000
       338    1       32.951554783954      76.733951214253       0.791300000000
       339    1       33.232067403428      74.513465188556       2.373900000000
       340    1       31.011581377731      74.232952569081       0.791300000000
       341    1       31.292093997206      72.012466543384       2.373900000000
       342    1       29.071607971509      71.731953923910       0.791300000000
       343    1       29.352120590983      69.511467898213       2.373900000000
       344    1       27.131634565286      69.230955278738       0.791300000000
       345    1       27.412147184761      67.010469253041       2.373900000000
       346    1       25.191661159064      66.729956633567       0.791300000000
       347    1       25.472173778538      64.509470607870       2.373900000000
       348    1       23.251687752842      64.228957988395       0.791300000000
       349    1       23.532200372316      62.008471962698       2.373900000000
       350    1       21.311714346619      61.727959343224       0.791300000000
       351    1       21.592226966094      59.507473317527       2.373900000000
       352    1       19.371740940397      59.226960698052       0.791300000000
       353    1       19.652253559871      57.006474672355       2.373900000000
       354    1       17.431767534174      56.725962052880       0.791300000000
       355    1       17.712280153649      54.505476027183       2.373900000000
       356    1       15.491794127952      54.224963407709       0.791300000000
       357    1       15.772306747426      52.004477382012       2.373900000000
       358    1       13.551820721730      51.723964762537       0.791300000000
       359    1       13.832333341204      49.503478736840       2.373900000000
       360    1       11.611847315507      49.222966117366       0.791300000000
       361    1       11.892359934982      47.002480091669       2.373900000000
       362    1        9.671873909285      46.721967472194       0.791300000000
       363    1        9.952386528759      44.501481446497       2.373900000000
       364    1        7.731900503062      44.220968827023       0.791300000000
       365    1        8.012413122537      42.000482801326       2.373900000000
       366    1        5.791927096840      41.719970181851       0.791300000000
       367    1        6.072439716314      39.499484156154       2.373900000000
       368    1        3.851953690618      39.218971536680       0.791300000000
       369    1        4.132466310092      36.998485510983       2.373900000000
       370    1        1.911980284395      36.717972891508       0.791300000000
       371    1        2.192492903870      34.497486865811       2.373900000000